# Probe 0 (0.1194 0.0179 0.0179)
#       Probe             0
#        Time
            1       6.54371
            2       119.046
            3       108.509
            4       24.9913
            5      -37.3382
            6      -37.3382
            7      0.969389
            8       35.1999
            9       40.1763
           10       24.5668
           11       6.99694
           12      0.920739
           13       6.51183
           14       15.0394
           15       19.6618
           16       18.6726
           17       14.7833
           18       11.6092
           19       11.0209
           20       12.2805
           21       14.0216
           22       15.0222
           23       14.9254
           24       13.9842
           25       13.0885
           26       12.8935
           27       13.1165
           28       13.5764
           29       13.8185
           30       13.9085
           31       13.8077
           32       13.5992
           33       13.4356
           34       13.4356
           35       13.4356
           36       13.4085
           37       13.4085
           38       13.4085
           39       13.4085
           40       13.4085
           41       13.4085
           42       13.3655
           43       13.3655
           44       13.3655
           45       13.2719
           46       13.2718
           47       13.2719
           48       13.5214
           49       13.6752
           50       13.6752
           51       13.6123
           52       13.5418
           53       13.5418
           54       13.4799
           55       13.4195
           56       13.4195
           57       13.4722
           58       13.5639
           59       13.5639
           60       13.5639
           61       13.5639
           62       13.5163
           63       13.4761
           64       13.4761
           65       13.4528
           66       13.4528
           67       13.4528
           68       13.4857
           69       13.4857
           70       13.4857
           71       13.4857
           72       13.4857
           73       13.4857
           74       13.4411
           75       13.4411
           76       13.4411
           77       13.4411
           78       13.4411
           79       13.4411
           80       13.5014
           81       13.5627
           82       13.5627
           83       13.5627
           84       13.3848
           85       13.2888
           86       13.2888
           87       13.3708
           88        13.445
           89       13.4695
           90       13.4183
           91       13.4183
           92       13.3471
           93       13.2642
           94       13.2642
           95       13.2642
           96       13.3465
           97       13.4383
           98       13.5336
           99       13.5916
          100       13.5916
          101         13.36
          102        13.242
          103        13.242
          104        13.242
          105       13.4163
          106       13.5092
          107       13.5857
          108       13.5857
          109       13.4714
          110       13.4714
          111       13.4714
          112       13.4209
          113       13.3703
          114       13.3305
          115       13.3305
          116       13.3305
          117       13.3632
          118       13.4212
          119       13.4785
          120       13.4785
          121       13.5184
          122       13.6159
          123       13.6623
          124       13.6623
          125       13.6623
          126       13.5974
          127       13.5505
          128       13.5505
          129       13.4879
          130       13.4258
          131       13.3983
          132       13.3983
          133       13.3983
          134       13.4578
          135       13.4578
          136       13.4936
          137       13.4936
          138       13.5698
          139       13.6201
          140       13.6201
          141       13.6201
          142       13.5078
          143       13.4388
          144       13.3881
          145       13.3336
          146       13.3336
          147       13.4366
          148       13.4366
          149       13.3695
          150       13.3695
          151       13.3695
          152       13.3695
          153       13.3345
          154       13.3345
          155       13.3992
          156       13.3992
          157       13.4677
          158       13.5236
          159       13.5606
          160       13.5606
          161       13.4088
          162       13.3205
          163       13.2271
          164       13.2271
          165       13.3061
          166       13.3061
          167       13.3623
          168       13.3947
          169       13.3947
          170       13.2801
          171       13.1423
          172       13.0909
          173       13.1533
          174       13.2682
          175       13.3718
          176       13.4156
          177       13.4156
          178       13.4156
          179       13.4156
          180       13.3805
          181       13.3805
          182       13.3805
          183         13.44
          184       13.4698
          185       13.4698
          186       13.5086
          187       13.5086
          188       13.4343
          189       13.3166
          190       13.2445
          191       13.2445
          192       13.2445
          193       13.3127
          194       13.3962
          195        13.446
          196        13.446
          197        13.446
          198       13.3699
          199       13.2996
          200       13.2996
          201       13.3669
          202       13.4803
          203       13.5601
          204       13.5601
          205        13.483
          206       13.3815
          207       13.3135
          208       13.3868
          209       13.5357
          210        13.612
          211        13.612
          212       13.5637
          213       13.4356
          214       13.4356
          215       13.4356
          216       13.4356
          217       13.3488
          218       13.3488
          219       13.3851
          220       13.4667
          221       13.5194
          222       13.5194
          223       13.4803
          224       13.4091
          225       13.3399
          226       13.3399
          227       13.3399
          228        13.473
          229       13.6179
          230       13.6723
          231       13.6168
          232       13.5142
          233       13.4716
          234       13.4716
          235       13.4716
          236       13.5034
          237       13.5034
          238       13.5034
          239       13.5034
          240       13.5034
          241       13.5034
          242       13.5034
          243       13.5034
          244       13.5034
          245       13.5034
          246        13.558
          247        13.558
          248        13.558
          249        13.558
          250       13.4808
          251       13.3867
          252       13.3867
          253       13.3867
          254       13.5095
          255        13.655
          256        13.655
          257        13.655
          258       13.5987
          259       13.4651
          260       13.4057
          261       13.3765
          262       13.3765
          263       13.3765
          264       13.4446
          265       13.4883
          266       13.4883
          267       13.4883
          268       13.4883
          269       13.4883
          270       13.5231
          271       13.5729
          272       13.5729
          273       13.5729
          274       13.5312
          275       13.5312
          276       13.5312
          277       13.4354
          278       13.3762
          279       13.3762
          280       13.4258
          281       13.5173
          282        13.566
          283       13.5948
          284        13.509
          285       13.3794
          286       13.3513
          287       13.3861
          288       13.4373
          289        13.461
          290       13.4384
          291       13.4192
          292       13.4192
          293       13.4516
          294       13.5064
          295       13.5781
          296        13.645
          297        13.645
          298       13.5702
          299       13.5112
          300        13.437
          301        13.437
          302        13.437
          303        13.437
          304        13.437
          305       13.3954
          306       13.3953
          307       13.3686
          308       13.3686
          309       13.3686
          310       13.4249
          311       13.4655
          312       13.4655
          313       13.4384
          314       13.3567
          315       13.2766
          316       13.1976
          317       13.1788
          318       13.2984
          319       13.4727
          320       13.5678
          321       13.5678
          322       13.5678
          323       13.5043
          324       13.3611
          325       13.3131
          326       13.3131
          327       13.3814
          328       13.4425
          329       13.4425
          330       13.4688
          331       13.4688
          332       13.4688
          333       13.4688
          334       13.4688
          335       13.5463
          336       13.6566
          337        13.697
          338        13.697
          339       13.5999
          340       13.4967
          341       13.4382
          342       13.4382
          343       13.5602
          344       13.6639
          345       13.6639
          346       13.6639
          347       13.5636
          348       13.4882
          349       13.4882
          350       13.5215
          351       13.5892
          352       13.5892
          353       13.5459
          354       13.4634
          355       13.3811
          356       13.3811
          357        13.478
          358       13.6338
          359       13.6338
          360       13.5366
          361        13.439
          362        13.439
          363       13.3754
          364       13.3092
          365       13.3092
          366       13.3092
          367       13.3849
          368        13.477
          369       13.6024
          370       13.6024
          371        13.475
          372       13.2975
          373       13.2975
          374       13.2974
          375        13.268
          376        13.268
          377       13.3731
          378       13.5022
          379       13.5022
          380       13.5022
          381       13.5022
          382       13.5022
          383       13.4469
          384       13.3995
          385       13.3995
          386       13.3995
          387       13.5221
          388       13.5681
          389       13.5681
          390        13.543
          391        13.543
          392        13.543
          393       13.5161
          394       13.5161
          395       13.4618
          396       13.4091
          397       13.4091
          398       13.4992
          399       13.5605
          400       13.5605
          401       13.5605
          402       13.5328
          403       13.4992
          404       13.4349
          405       13.4079
          406       13.4079
          407       13.4877
          408       13.4877
          409       13.4877
          410       13.3356
          411       13.2351
          412       13.2351
          413       13.3238
          414       13.5322
          415       13.6848
          416       13.6233
          417       13.4453
          418       13.2624
          419       13.2624
          420       13.3152
          421       13.4334
          422       13.5363
          423       13.5363
          424       13.4457
          425       13.4457
          426       13.4457
          427       13.5422
          428       13.5799
          429       13.5799
          430        13.518
          431       13.4548
          432       13.4548
          433       13.4548
          434       13.4172
          435       13.3612
          436       13.2654
          437       13.2071
          438       13.2071
          439       13.2848
          440       13.4346
          441       13.5494
          442       13.4827
          443       13.3394
          444       13.3394
          445       13.3394
          446       13.3067
          447       13.3344
          448       13.4373
          449       13.5153
          450       13.5153
          451       13.4794
          452       13.4019
          453       13.3696
          454       13.3696
          455       13.4169
          456       13.4642
          457        13.536
          458       13.5801
          459       13.5801
          460       13.5199
          461       13.5199
          462       13.5199
          463       13.5199
          464       13.5199
          465       13.6129
          466       13.6814
          467       13.6814
          468       13.5181
          469       13.3868
          470       13.3868
          471       13.3868
          472       13.3868
          473       13.3868
          474       13.3868
          475       13.3868
          476       13.3343
          477       13.2932
          478       13.2932
          479       13.3507
          480       13.3759
          481       13.3759
          482       13.3435
          483       13.2979
          484       13.3344
          485       13.4792
          486       13.4792
          487       13.4792
          488       13.4792
          489       13.4306
          490       13.4306
          491       13.4306
          492       13.4306
          493       13.4306
          494       13.4306
          495       13.4894
          496       13.5094
          497       13.4239
          498       13.3669
          499       13.3669
          500        13.506
