# Probe 0 (0.1194 0.0179 0.017)
#       Probe             0
#        Time
            1        1.8702
            2       17.5259
            3       16.6638
            4       4.33193
            5      -5.32248
            6      -5.99876
            7     -0.648661
            8        4.5254
            9       5.87199
           10       3.89354
           11       1.27189
           12     0.0967112
           13      0.675906
           14        1.9663
           15       2.80645
           16       2.77179
           17       2.20531
           18       1.69436
           19       1.58635
           20       1.81572
           21       2.10917
           22       2.22253
           23       2.15891
           24       2.01432
           25       1.91583
           26       1.91583
           27       1.97378
           28       2.02884
           29       2.04476
           30       2.02276
           31        1.9867
           32       1.96389
           33       1.96389
           34       1.96726
           35       1.97304
           36       1.97925
           37       1.99003
           38       1.99561
           39        1.9956
           40       1.98335
           41       1.96571
           42       1.95497
           43       1.95861
           44       1.97758
           45       1.99502
           46       2.00454
           47       2.00197
           48       1.99666
           49       1.99353
           50       1.99612
           51       1.99612
           52       1.98692
           53       1.97942
           54       1.97942
           55       1.98434
           56       1.98764
           57       1.98765
           58       1.98233
           59        1.9842
           60       1.99342
           61       2.00306
           62       1.99971
           63       1.98885
           64       1.98567
           65       1.98567
           66       1.98787
           67       1.98567
           68       1.98121
           69       1.97614
           70       1.97088
           71       1.96679
           72       1.96678
           73       1.97207
           74        1.9784
           75        1.9763
           76        1.9763
           77        1.9763
           78        1.9814
           79       1.99001
           80       1.99763
           81       1.99764
           82       1.98308
           83       1.96958
           84       1.97372
           85        1.9838
           86       1.98577
           87       1.97507
           88        1.9664
           89       1.95838
           90       1.95838
           91       1.96607
           92       1.97746
           93       1.99145
           94       1.99511
           95       1.98351
           96       1.97201
           97       1.96674
           98       1.96674
           99       1.96898
          100       1.97314
          101       1.98107
          102       1.98379
          103       1.98588
          104       1.99373
          105       1.99373
          106       1.98988
          107       1.98676
          108       1.97943
          109       1.97103
          110       1.97103
          111       1.98017
          112       1.98365
          113       1.98174
          114       1.97718
          115       1.96939
          116       1.96939
          117       1.98648
          118       2.00275
          119       2.01458
          120       2.01194
          121       1.99934
          122       1.98469
          123       1.98469
          124       1.98795
          125       1.99164
          126       1.99164
          127       1.98466
          128       1.98115
          129       1.98575
          130       1.98872
          131       1.98872
          132       1.99044
          133       1.99044
          134       1.99044
          135        1.9919
          136       1.98507
          137       1.97358
          138       1.96675
          139       1.96959
          140       1.98051
          141       1.99158
          142       1.99367
          143       1.99367
          144       1.99367
          145        1.9813
          146       1.96589
          147       1.96589
          148       1.98211
          149       1.99753
          150       1.99753
          151       1.98505
          152       1.96494
          153       1.95336
          154       1.95644
          155       1.97507
          156       1.99075
          157       1.99507
          158       1.99507
          159       1.99144
          160         1.985
          161       1.98714
          162       1.99101
          163       1.99101
          164       1.98714
          165       1.97526
          166       1.96731
          167       1.96731
          168       1.97944
          169       1.99353
          170       2.00031
          171       1.99187
          172       1.97406
          173       1.95985
          174       1.95772
          175       1.96573
          176       1.97711
          177       1.98107
          178       1.98412
          179       1.98848
          180       1.99092
          181       1.99092
          182       1.99341
          183       1.99035
          184        1.9878
          185       1.99163
          186       1.99612
          187       1.99613
          188       1.98994
          189       1.97497
          190        1.9701
          191        1.9701
          192       1.97323
          193       1.98503
          194        1.9905
          195       1.99434
          196       1.99434
          197       1.98778
          198       1.97617
          199       1.96777
          200       1.96481
          201       1.96481
          202       1.97251
          203       1.96999
          204       1.96695
          205       1.96695
          206       1.96938
          207       1.97771
          208       1.98187
          209       1.98551
          210       1.99392
          211       1.99392
          212       1.99084
          213        1.9866
          214       1.97714
          215       1.97466
          216       1.97708
          217       1.97707
          218       1.97707
          219       1.97201
          220       1.96459
          221       1.96459
          222       1.96662
          223       1.97124
          224       1.97492
          225       1.97492
          226       1.97652
          227       1.98289
          228       1.99307
          229       1.99753
          230       1.99405
          231       1.97913
          232       1.96298
          233       1.95175
          234       1.95175
          235       1.96121
          236       1.97415
          237       1.98919
          238       1.99237
          239       1.99044
          240        1.9865
          241        1.9865
          242        1.9865
          243        1.9865
          244       1.99004
          245       1.99477
          246       1.99477
          247       1.99067
          248       1.98882
          249       1.98594
          250       1.98181
          251       1.97747
          252       1.97908
          253       1.98287
          254       1.98731
          255       1.98731
          256        1.9796
          257        1.9764
          258       1.97949
          259       1.99984
          260       2.01683
          261       2.01683
          262       2.00042
          263       1.97802
          264       1.96698
          265       1.96698
          266       1.97721
          267       1.99143
          268       1.99913
          269       1.99408
          270        1.9781
          271       1.96487
          272       1.96708
          273       1.98083
          274        1.9861
          275       1.98761
          276       1.97867
          277       1.96693
          278       1.95281
          279       1.95018
          280       1.96644
          281       1.97708
          282       1.97708
          283       1.97473
          284       1.97181
          285       1.96913
          286       1.97128
          287       1.97461
          288       1.97705
          289       1.97706
          290       1.97073
          291       1.96214
          292       1.96214
          293       1.97369
          294       1.98869
          295       1.98869
          296       1.98274
          297       1.97283
          298       1.96343
          299       1.96503
          300       1.97944
          301       1.99538
          302       1.99818
          303       1.99374
          304       1.98035
          305       1.97054
          306       1.96511
          307       1.96807
          308       1.98348
          309       1.99374
          310       1.99374
          311       1.98359
          312       1.97234
          313       1.97059
          314       1.97254
          315       1.97255
          316       1.97255
          317       1.97632
          318       1.98097
          319       1.98397
          320       1.97807
          321       1.97064
          322       1.97259
          323       1.98044
          324       1.98974
          325       1.98974
          326       1.98171
          327       1.96749
          328       1.96226
          329       1.96226
          330       1.96226
          331       1.96226
          332       1.96226
          333       1.96602
          334       1.96995
          335       1.98316
          336       1.99218
          337       1.97993
          338       1.95464
          339       1.94625
          340       1.95691
          341       1.97876
          342       2.00173
          343       2.00173
          344       1.97615
          345       1.94934
          346       1.94281
          347       1.94675
          348       1.96313
          349       1.98074
          350       1.98273
          351       1.96952
          352       1.96469
          353       1.96949
          354       1.98113
          355       1.98358
          356       1.98358
          357       1.98358
          358       1.97983
          359       1.97714
          360       1.97714
          361       1.97511
          362       1.97145
          363       1.96861
          364        1.9686
          365        1.9686
          366        1.9686
          367        1.9686
          368       1.97366
          369       1.98511
          370       1.98874
          371       1.98362
          372        1.9722
          373       1.97219
          374       1.97967
          375       1.98706
          376       1.99627
          377       1.99997
          378        2.0026
          379       1.99785
          380       1.99209
          381       1.98833
          382       1.97996
          383       1.97174
          384       1.97174
          385        1.9797
          386        1.9844
          387        1.9876
          388        1.9876
          389        1.9876
          390        1.9876
          391       1.98625
          392       1.98399
          393       1.97982
          394       1.96857
          395       1.96857
          396       1.97444
          397       1.98364
          398       1.98364
          399       1.97713
          400       1.96523
          401       1.96219
          402       1.96405
          403       1.97725
          404       1.98986
          405       1.98986
          406       1.98041
          407       1.96868
          408       1.96868
          409       1.96615
          410       1.96615
          411       1.96891
          412       1.98133
          413       1.99112
          414       1.99112
          415       1.98543
          416       1.97538
          417       1.97124
          418       1.97315
          419       1.97629
          420       1.97912
          421       1.98109
          422       1.98109
          423       1.97827
          424       1.97827
          425       1.97827
          426       1.98014
          427       1.98373
          428       1.98645
          429       1.99045
          430       1.98625
          431       1.97933
          432        1.9772
          433       1.97479
          434       1.97872
          435       1.98352
          436       1.98352
          437       1.98352
          438       1.98631
          439       1.98631
          440       1.98215
          441       1.97068
          442       1.95939
          443       1.95939
          444       1.96718
          445       1.97846
          446        1.9815
          447        1.9815
          448        1.9815
          449        1.9815
          450        1.9815
          451        1.9743
          452       1.97219
          453       1.97416
          454       1.97416
          455       1.97416
          456       1.97751
          457       1.97751
          458       1.97751
          459       1.97281
          460       1.95746
          461       1.95272
          462       1.96149
          463        1.9753
          464       1.98299
          465       1.98785
          466       1.99099
          467       1.99099
          468       1.98274
          469       1.97395
          470       1.97581
          471       1.97829
          472       1.98204
          473        1.9867
          474       1.99139
          475       1.98162
          476       1.96813
          477       1.96546
          478        1.9752
          479       1.98306
          480       1.98537
          481       1.98536
          482       1.98001
          483       1.98001
          484       1.98455
          485       1.99734
          486       2.00056
          487       1.99508
          488       1.97881
          489       1.96827
          490       1.96409
          491       1.96579
          492       1.96999
          493       1.97177
          494       1.97384
          495       1.97384
          496       1.97826
          497       1.97826
          498       1.97982
          499       1.97982
          500       1.97982
