# Probe 0 (-0.04986 0.02265 0.01462)
#       Probe             0
#        Time
            1      0.732912
            2       2.79038
            3       2.21253
            4      0.357629
            5     -0.851271
            6     -0.764689
            7     0.0636319
            8      0.749148
            9      0.848182
           10      0.507587
           11      0.144522
           12     0.0362099
           13      0.164795
           14       0.34603
           15      0.428942
           16      0.392807
           17      0.308359
           18      0.254259
           19      0.257965
           20       0.29495
           21      0.328005
           22      0.334978
           23      0.320704
           24      0.302646
           25      0.295081
           26      0.299077
           27      0.307546
           28      0.313429
           29      0.314033
           30      0.311282
           31      0.308045
           32      0.306476
           33      0.307238
           34      0.308998
           35      0.310292
           36      0.310867
           37      0.310738
           38      0.310593
           39      0.310129
           40      0.309464
           41      0.309279
           42      0.309693
           43      0.310679
           44      0.311099
           45      0.311359
           46       0.31075
           47      0.309989
           48      0.309645
           49      0.309644
           50      0.309813
           51      0.310225
           52      0.310919
           53      0.311203
           54      0.311056
           55      0.310735
           56      0.309702
           57      0.308172
           58      0.307577
           59      0.308131
           60      0.308952
           61      0.310052
           62      0.311264
           63      0.312391
           64      0.312391
           65      0.311338
           66       0.30995
           67      0.308932
           68      0.308805
           69      0.309496
           70      0.310526
           71      0.310691
           72      0.310069
           73      0.309298
           74      0.309297
           75      0.310015
           76      0.310246
           77      0.310246
           78      0.309994
           79      0.309994
           80      0.309994
           81      0.309994
           82      0.310662
           83       0.31155
           84       0.31155
           85      0.310912
           86      0.310297
           87      0.310611
           88      0.311332
           89      0.311114
           90      0.309675
           91      0.308793
           92      0.308793
           93      0.309493
           94      0.310356
           95      0.310554
           96      0.310554
           97      0.310554
           98      0.310555
           99       0.31017
          100      0.308896
          101      0.307643
          102      0.307507
          103      0.308104
          104      0.309336
          105       0.31008
          106       0.31021
          107      0.309981
          108      0.309638
          109      0.308924
          110      0.308924
          111       0.31012
          112      0.310929
          113      0.310591
          114      0.309246
          115      0.308461
          116      0.308461
          117      0.308826
          118      0.309187
          119      0.309925
          120      0.310218
          121      0.309992
          122      0.309353
          123      0.308468
          124      0.307791
          125       0.30779
          126      0.308001
          127      0.308545
          128       0.30866
          129       0.30866
          130      0.308978
          131      0.309533
          132      0.309903
          133      0.309902
          134      0.309194
          135      0.308198
          136      0.308198
          137      0.308837
          138      0.309648
          139      0.309648
          140      0.309538
          141      0.309539
          142      0.309539
          143       0.30954
          144      0.309539
          145      0.309539
          146      0.309688
          147      0.310029
          148      0.310414
          149      0.310415
          150      0.310062
          151      0.309322
          152      0.308323
          153      0.307805
          154      0.308494
          155      0.309865
          156      0.310393
          157       0.31012
          158      0.309314
          159      0.309047
          160      0.309323
          161      0.310255
          162       0.31054
          163      0.310025
          164       0.30964
          165      0.309334
          166      0.309333
          167      0.309334
          168      0.309335
          169      0.309071
          170      0.308779
          171      0.308567
          172      0.308567
          173      0.309229
          174      0.309957
          175      0.310104
          176      0.309728
          177      0.309234
          178      0.308268
          179      0.307679
          180      0.307679
          181      0.308361
          182      0.309408
          183      0.310322
          184      0.310763
          185        0.3106
          186      0.309914
          187      0.309286
          188      0.309146
          189      0.309026
          190      0.309026
          191      0.309206
          192      0.310047
          193      0.310696
          194      0.310697
          195      0.310077
          196      0.309686
          197        0.3095
          198        0.3095
          199      0.309654
          200      0.310022
          201      0.310306
          202      0.310306
          203      0.310306
          204      0.310446
          205      0.310188
          206      0.309937
          207      0.309791
          208       0.30994
          209      0.310608
          210      0.310847
          211       0.31047
          212      0.309692
          213      0.309369
          214      0.309369
          215      0.309669
          216      0.310007
          217      0.310007
          218      0.309383
          219      0.308684
          220      0.308514
          221      0.308743
          222      0.309645
          223      0.311334
          224      0.312594
          225      0.312293
          226      0.310367
          227      0.308436
          228      0.307645
          229      0.308227
          230      0.309417
          231      0.310006
          232      0.309807
          233      0.309154
          234      0.308846
          235      0.308846
          236      0.308847
          237      0.308847
          238      0.309505
          239      0.310466
          240      0.311326
          241      0.311503
          242      0.310894
          243      0.309671
          244      0.308666
          245      0.308414
          246      0.308414
          247       0.30919
          248      0.309802
          249      0.310005
          250      0.310005
          251      0.310005
          252      0.309827
          253      0.309711
          254      0.309858
          255        0.3101
          256        0.3101
          257      0.309186
          258      0.308909
          259      0.309303
          260      0.310131
          261      0.310445
          262      0.310445
          263       0.30969
          264      0.309477
          265      0.309829
          266      0.310201
          267      0.310464
          268      0.310464
          269      0.309827
          270       0.30898
          271      0.308841
          272      0.309218
          273      0.310431
          274       0.31139
          275      0.311203
          276      0.310129
          277      0.309707
          278      0.309707
          279      0.309707
          280        0.3095
          281      0.309198
          282      0.309198
          283      0.310309
          284      0.311269
          285       0.31127
          286      0.310276
          287      0.309375
          288      0.309073
          289       0.30885
          290      0.309731
          291       0.31072
          292      0.311533
          293      0.311532
          294      0.311242
          295      0.311242
          296       0.31105
          297      0.310806
          298      0.310806
          299      0.310806
          300      0.310806
          301      0.310559
          302      0.309359
          303      0.308083
          304      0.308083
          305      0.309023
          306       0.31002
          307      0.310358
          308      0.310359
          309      0.309376
          310      0.308612
          311      0.308762
          312      0.309793
          313      0.310779
          314      0.310779
          315      0.310114
          316      0.309137
          317      0.308738
          318       0.30944
          319      0.309908
          320       0.31016
          321      0.309441
          322      0.308776
          323      0.308917
          324        0.3092
          325        0.3099
          326        0.3102
          327        0.3102
          328      0.309435
          329      0.309158
          330      0.309157
          331      0.309932
          332      0.310583
          333      0.310583
          334      0.309764
          335      0.308998
          336      0.308636
          337         0.308
          338      0.307848
          339      0.308159
          340      0.308619
          341      0.309244
          342      0.309468
          343      0.309468
          344      0.309695
          345      0.310246
          346      0.310247
          347      0.309918
          348        0.3091
          349      0.308919
          350      0.309149
          351      0.309684
          352      0.309685
          353      0.308939
          354      0.308649
          355      0.308648
          356      0.308911
          357      0.309291
          358      0.309654
          359      0.309839
          360      0.309595
          361      0.308949
          362      0.308948
          363      0.309965
          364      0.311212
          365      0.311339
          366      0.311035
          367      0.311034
          368      0.311034
          369      0.311034
          370      0.310462
          371      0.309287
          372      0.308317
          373      0.309028
          374      0.310426
          375      0.311541
          376      0.311707
          377      0.311374
          378      0.310328
          379      0.309426
          380      0.309117
          381      0.309478
          382      0.310433
          383       0.31021
          384      0.309403
          385      0.309005
          386      0.309006
          387      0.309667
          388      0.309922
          389      0.310185
          390       0.31054
          391      0.310838
          392      0.311056
          393      0.311055
          394      0.310658
          395      0.310287
          396      0.309613
          397      0.309613
          398      0.309814
          399      0.310175
          400      0.310512
          401      0.310755
          402      0.310949
          403      0.311159
          404      0.311159
          405      0.310818
          406       0.30969
          407      0.309373
          408      0.309581
          409      0.310181
          410      0.310847
          411      0.310966
          412      0.310282
          413      0.309246
          414      0.308471
          415      0.308746
          416        0.3095
          417      0.310187
          418      0.310187
          419      0.310459
          420      0.310658
          421      0.310485
          422      0.310203
          423      0.310204
          424      0.310326
          425       0.31057
          426       0.31057
          427      0.310167
          428      0.309833
          429      0.309833
          430      0.309679
          431      0.309114
          432      0.308821
          433      0.308999
          434      0.310211
          435      0.311224
          436      0.311383
          437       0.31117
          438       0.31117
          439       0.31117
          440      0.310566
          441      0.310309
          442      0.310512
          443      0.310887
          444      0.311183
          445      0.311001
          446      0.310193
          447      0.309571
          448      0.309315
          449      0.308982
          450      0.308675
          451      0.309048
          452      0.310468
          453      0.311798
          454      0.312118
          455      0.311212
          456      0.310256
          457      0.310255
          458      0.310894
          459      0.311211
          460      0.311211
          461      0.310627
          462      0.309972
          463      0.309704
          464      0.309704
          465      0.309704
          466      0.309937
          467      0.310186
          468      0.310186
          469      0.310058
          470      0.309884
          471      0.310494
          472      0.310774
          473      0.310774
          474       0.31064
          475      0.309679
          476      0.308435
          477      0.307884
          478      0.308534
          479       0.30971
          480      0.310655
          481      0.311084
          482      0.310891
          483       0.30986
          484       0.30895
          485      0.308568
          486      0.308396
          487      0.308553
          488      0.309481
          489      0.310282
          490      0.310827
          491      0.310826
          492      0.310826
          493      0.310636
          494      0.310064
          495      0.309434
          496      0.309102
          497      0.309102
          498      0.309912
          499      0.311019
          500       0.31102
