# Probe 0 (-0.2299 0.0179 0.0179)
#       Probe             0
#        Time
            1   3.45421e-07
            2  -1.52232e-07
            3  -7.64578e-07
            4  -1.06829e-06
            5   -8.0573e-07
            6  -3.57222e-07
            7    1.0573e-07
            8   4.40637e-07
            9   5.13575e-07
           10   5.25905e-07
           11   4.60293e-07
           12   3.84943e-07
           13   3.50929e-07
           14   3.48249e-07
           15   3.11227e-07
           16   2.68188e-07
           17   2.59855e-07
           18   2.51195e-07
           19   2.20879e-07
           20   2.12413e-07
           21   2.18751e-07
           22   1.99324e-07
           23   1.65398e-07
           24   1.20014e-07
           25   1.18166e-07
           26   1.89598e-07
           27   2.70156e-07
           28    3.4411e-07
           29   3.40499e-07
           30   3.22274e-07
           31   3.04944e-07
           32   3.06156e-07
           33   3.47461e-07
           34   4.12833e-07
           35   4.65251e-07
           36   4.56831e-07
           37   4.04311e-07
           38    3.1129e-07
           39   2.49401e-07
           40   2.14903e-07
           41    1.8093e-07
           42   1.32744e-07
           43   7.21054e-08
           44   5.25761e-11
           45  -5.58024e-08
           46  -1.09182e-07
           47  -1.28785e-07
           48  -1.44807e-07
           49  -1.53255e-07
           50  -1.63938e-07
           51  -1.74931e-07
           52  -1.95845e-07
           53  -2.10769e-07
           54  -2.29447e-07
           55  -2.14326e-07
           56  -1.71296e-07
           57  -1.19409e-07
           58  -1.03055e-07
           59  -1.38257e-07
           60  -1.64515e-07
           61  -1.76804e-07
           62  -1.57094e-07
           63  -1.19024e-07
           64  -9.41547e-08
           65  -9.33101e-08
           66  -1.03461e-07
           67  -1.10185e-07
           68  -1.08489e-07
           69  -9.73252e-08
           70  -7.79959e-08
           71   -6.4763e-08
           72  -5.78895e-08
           73  -5.88655e-08
           74  -5.54783e-08
           75   -4.9746e-08
           76  -5.11766e-08
           77  -5.40419e-08
           78  -5.73708e-08
           79  -5.64927e-08
           80  -5.37795e-08
           81  -5.14049e-08
           82  -5.15885e-08
           83  -5.27211e-08
           84  -5.22201e-08
           85  -4.57752e-08
           86  -3.71511e-08
           87  -3.30256e-08
           88  -3.03192e-08
           89   -2.9017e-08
           90  -2.87764e-08
           91   -3.0582e-08
           92  -3.25991e-08
           93  -3.39952e-08
           94  -3.06616e-08
           95  -2.08438e-08
           96  -3.51735e-09
           97   6.76945e-09
           98   3.36747e-09
           99  -1.05569e-08
          100  -2.76539e-08
          101  -3.47526e-08
          102  -2.97601e-08
          103  -3.19048e-08
          104   -2.4029e-08
          105  -1.52942e-08
          106  -6.63444e-09
          107   2.05989e-09
          108  -3.33559e-09
          109  -1.96167e-08
          110  -2.83648e-08
          111  -2.72789e-08
          112  -1.81129e-08
          113  -1.01653e-08
          114  -8.97678e-09
          115  -1.06501e-08
          116  -1.98008e-08
          117  -2.59309e-08
          118  -2.60493e-08
          119   -1.9277e-08
          120  -1.52361e-08
          121  -1.18889e-08
          122    4.2531e-10
          123   4.77893e-09
          124   1.26415e-08
          125   1.44254e-08
          126   6.36617e-09
          127  -8.69911e-09
          128  -1.86286e-08
          129  -1.07121e-08
          130   2.45868e-09
          131   1.20647e-08
          132   1.54983e-08
          133   4.98913e-09
          134  -5.00558e-09
          135  -1.21806e-08
          136  -8.63748e-09
          137  -5.69506e-09
          138  -1.65555e-09
          139  -3.94906e-09
          140  -4.30661e-09
          141  -4.38935e-09
          142  -3.77453e-09
          143  -2.75139e-09
          144  -1.06997e-08
          145  -1.36868e-08
          146  -1.20558e-08
          147  -6.11977e-09
          148   1.68972e-09
          149   8.33199e-09
          150   7.71648e-09
          151   1.77034e-10
          152  -8.20678e-09
          153  -1.36261e-08
          154  -8.20209e-09
          155  -7.81303e-09
          156  -2.40528e-09
          157   5.52892e-09
          158   1.15282e-08
          159   1.71128e-08
          160    2.4939e-08
          161   2.47862e-08
          162   1.33877e-08
          163  -1.35811e-09
          164  -1.17842e-08
          165  -1.22847e-08
          166  -5.12415e-09
          167   3.33734e-09
          168   7.73069e-09
          169   8.37404e-09
          170   1.22247e-08
          171   1.67153e-08
          172   1.87725e-08
          173   1.27973e-08
          174   4.40884e-09
          175  -8.31379e-09
          176  -1.68662e-08
          177  -1.71568e-08
          178  -1.30917e-08
          179  -1.11301e-08
          180  -1.52594e-08
          181  -2.00868e-08
          182  -2.27967e-08
          183  -2.11768e-08
          184  -1.82247e-08
          185  -1.47559e-08
          186  -9.17513e-09
          187  -7.06431e-09
          188  -6.60694e-09
          189  -9.78319e-09
          190  -2.45968e-08
          191  -2.84225e-08
          192  -2.77955e-08
          193  -1.25289e-08
          194   1.07501e-08
          195   2.14805e-08
          196   1.87339e-08
          197   3.44723e-09
          198  -1.34215e-08
          199  -1.74458e-08
          200  -1.40843e-08
          201  -1.47145e-08
          202  -2.18939e-08
          203  -3.14835e-08
          204  -3.28394e-08
          205   -2.1185e-08
          206  -6.10645e-09
          207   1.26402e-08
          208   1.83009e-08
          209   1.05392e-08
          210   1.74376e-09
          211  -1.21247e-09
          212   5.20852e-09
          213   5.17716e-09
          214   4.10065e-09
          215  -3.72046e-10
          216  -3.79961e-09
          217  -3.51678e-09
          218  -3.32456e-09
          219  -5.21339e-09
          220  -6.73548e-09
          221  -1.29003e-08
          222  -1.29589e-08
          223  -1.34836e-08
          224  -1.54004e-08
          225  -2.06041e-08
          226  -2.17331e-08
          227  -2.59801e-08
          228  -1.47972e-08
          229  -2.13451e-08
          230  -1.20195e-08
          231   -1.0058e-08
          232   -2.5793e-08
          233  -2.59254e-08
          234  -2.42253e-08
          235  -1.98541e-08
          236  -1.08619e-08
          237  -5.91196e-09
          238  -5.68856e-09
          239  -6.70676e-09
          240  -4.78363e-09
          241  -1.53621e-09
          242  -2.44788e-09
          243  -6.46903e-09
          244  -6.47184e-09
          245  -5.71416e-09
          246  -5.06898e-09
          247  -7.81653e-10
          248  -2.39697e-09
          249  -8.68779e-09
          250   -1.4697e-08
          251  -2.49092e-08
          252  -2.44352e-08
          253  -2.62381e-08
          254  -3.08429e-08
          255  -2.59576e-08
          256  -2.66583e-08
          257  -2.52075e-08
          258  -2.37313e-08
          259  -2.57817e-08
          260  -2.95342e-08
          261  -4.11438e-08
          262  -5.43486e-08
          263  -5.72327e-08
          264  -4.02234e-08
          265  -3.19596e-08
          266  -2.98342e-08
          267  -3.99477e-08
          268  -5.16813e-08
          269  -6.09661e-08
          270  -5.69551e-08
          271  -6.51505e-08
          272  -6.77127e-08
          273  -6.59724e-08
          274  -6.37394e-08
          275  -5.79902e-08
          276   -5.4366e-08
          277  -4.82237e-08
          278   -2.5477e-08
          279   4.43379e-09
          280   1.55783e-08
          281   9.98395e-09
          282   8.42651e-09
          283   2.99108e-08
          284   5.77129e-08
          285   6.77446e-08
          286   6.20513e-08
          287   5.60193e-08
          288   7.60349e-08
          289   1.11702e-07
          290   1.40557e-07
          291   1.53565e-07
          292    1.5313e-07
          293   1.57103e-07
          294   1.81926e-07
          295    1.9322e-07
          296   1.94235e-07
          297   1.92433e-07
          298   2.02205e-07
          299   2.41545e-07
          300   2.99992e-07
          301   3.31345e-07
          302   3.20222e-07
          303   2.77778e-07
          304   2.47447e-07
          305   2.52146e-07
          306   2.77931e-07
          307   3.19994e-07
          308   3.44316e-07
          309   3.33145e-07
          310    3.0754e-07
          311   3.17575e-07
          312   3.68758e-07
          313   4.15843e-07
          314   4.48494e-07
          315   4.50003e-07
          316   4.45558e-07
          317    4.3685e-07
          318   4.32965e-07
          319   4.01536e-07
          320   3.80313e-07
          321   3.61188e-07
          322   3.61254e-07
          323   3.78178e-07
          324   3.97124e-07
          325   4.23224e-07
          326   4.46766e-07
          327   4.57907e-07
          328   4.51588e-07
          329   4.39731e-07
          330   4.34388e-07
          331   4.32124e-07
          332   4.15994e-07
          333     3.716e-07
          334   3.32545e-07
          335   3.16166e-07
          336   3.23913e-07
          337   3.23433e-07
          338   3.35141e-07
          339   3.58135e-07
          340    3.7481e-07
          341   3.65324e-07
          342   3.30379e-07
          343   2.48839e-07
          344   1.53429e-07
          345   8.16224e-08
          346   5.34328e-08
          347   4.99953e-08
          348   3.66355e-08
          349   -9.0638e-09
          350  -6.32687e-08
          351  -9.75485e-08
          352  -1.11996e-07
          353  -1.15798e-07
          354  -1.08996e-07
          355  -1.17625e-07
          356  -1.29991e-07
          357  -1.22569e-07
          358  -1.09045e-07
          359   -8.6607e-08
          360  -8.29751e-08
          361  -7.45358e-08
          362  -8.20934e-08
          363  -1.02575e-07
          364  -1.33403e-07
          365  -1.47156e-07
          366  -1.52627e-07
          367  -1.36476e-07
          368  -1.27987e-07
          369   -1.2345e-07
          370  -1.17345e-07
          371  -9.94422e-08
          372   -8.9571e-08
          373  -8.53331e-08
          374  -9.97899e-08
          375  -1.36974e-07
          376  -1.91059e-07
          377  -2.17394e-07
          378  -2.23264e-07
          379   -2.3287e-07
          380  -2.82502e-07
          381  -3.73519e-07
          382  -4.81374e-07
          383  -5.91389e-07
          384  -6.50716e-07
          385  -6.72887e-07
          386  -7.15019e-07
          387  -8.04646e-07
          388  -9.26879e-07
          389  -1.04115e-06
          390  -1.10791e-06
          391  -1.13766e-06
          392  -1.16724e-06
          393  -1.21556e-06
          394    -1.303e-06
          395  -1.40513e-06
          396  -1.48493e-06
          397  -1.54922e-06
          398  -1.60296e-06
          399  -1.65027e-06
          400  -1.69451e-06
          401  -1.73767e-06
          402  -1.78028e-06
          403  -1.82382e-06
          404  -1.86963e-06
          405  -1.91403e-06
          406  -1.95055e-06
          407  -1.95055e-06
          408   -1.9412e-06
          409  -1.93159e-06
          410  -1.92908e-06
          411  -1.95096e-06
          412  -1.99361e-06
          413  -2.04926e-06
          414  -2.07519e-06
          415  -2.10663e-06
          416  -2.15693e-06
          417  -2.22544e-06
          418  -2.30851e-06
          419  -2.40324e-06
          420  -2.49157e-06
          421  -2.54953e-06
          422  -2.57595e-06
          423  -2.60075e-06
          424  -2.65361e-06
          425  -2.74523e-06
          426  -2.86463e-06
          427  -2.96714e-06
          428  -3.05048e-06
          429  -3.08171e-06
          430  -3.06836e-06
          431  -3.04477e-06
          432  -3.00364e-06
          433  -2.94409e-06
          434  -2.87078e-06
          435  -2.80826e-06
          436  -2.74846e-06
          437  -2.67672e-06
          438  -2.60416e-06
          439  -2.52359e-06
          440  -2.50247e-06
          441  -2.52832e-06
          442  -2.57216e-06
          443  -2.61059e-06
          444   -2.6328e-06
          445  -2.64522e-06
          446  -2.65155e-06
          447  -2.65451e-06
          448  -2.63958e-06
          449  -2.61915e-06
          450  -2.59421e-06
          451    -2.569e-06
          452  -2.55466e-06
          453  -2.55153e-06
          454  -2.55525e-06
          455  -2.56734e-06
          456  -2.58699e-06
          457  -2.60127e-06
          458  -2.59551e-06
          459  -2.54882e-06
          460  -2.47014e-06
          461  -2.39274e-06
          462  -2.35476e-06
          463  -2.32922e-06
          464  -2.29471e-06
          465  -2.24242e-06
          466  -2.15183e-06
          467  -2.00689e-06
          468   -1.8563e-06
          469  -1.68267e-06
          470  -1.51864e-06
          471  -1.37328e-06
          472  -1.25892e-06
          473  -1.16027e-06
          474  -1.08166e-06
          475  -9.92845e-07
          476  -9.17162e-07
          477  -8.41633e-07
          478  -7.65793e-07
          479  -6.84231e-07
          480  -5.75835e-07
          481  -4.52009e-07
          482  -3.22258e-07
          483  -2.09458e-07
          484  -1.27748e-07
          485  -3.19684e-08
          486   7.05714e-08
          487   1.60794e-07
          488   2.20609e-07
          489   2.85399e-07
          490   3.28828e-07
          491   3.59717e-07
          492   3.76193e-07
          493   4.10313e-07
          494   4.70124e-07
          495    5.4446e-07
          496   6.35368e-07
          497    6.9106e-07
          498   7.04877e-07
          499   7.46361e-07
          500   7.92756e-07
